 argument  1 = nwchem.nwi
                                         
                                         
 
 
             Northwest Computational Chemistry Package (NWChem) 7.0.2
             --------------------------------------------------------
 
 
                    Environmental Molecular Sciences Laboratory
                       Pacific Northwest National Laboratory
                                Richland, WA 99352
 
                              Copyright (c) 1994-2020
                       Pacific Northwest National Laboratory
                            Battelle Memorial Institute
 
             NWChem is an open-source computational chemistry package
                        distributed under the terms of the
                      Educational Community License (ECL) 2.0
             A copy of the license is included with this distribution
                              in the LICENSE.TXT file
 
                                  ACKNOWLEDGMENT
                                  --------------

            This software and its documentation were developed at the
            EMSL at Pacific Northwest National Laboratory, a multiprogram
            national laboratory, operated for the U.S. Department of Energy
            by Battelle under Contract Number DE-AC05-76RL01830. Support
            for this work was provided by the Department of Energy Office
            of Biological and Environmental Research, Office of Basic
            Energy Sciences, and the Office of Advanced Scientific Computing.


           Job information
           ---------------

    hostname        = node17.swmgmt.eureka
    program         = nwchem
    date            = Fri Apr 14 21:40:23 2023

    compiled        = Mon_Nov_09_11:37:09_2020
    source          = /opt/pkg/apps/nwchem/7.0.2/nwchem-7.0.2-release
    nwchem branch   = 7.0.2
    nwchem revision = N/A
    ga revision     = 5.7.2
    use scalapack   = F
    input           = nwchem.nwi
    prefix          = nwchem.
    data base       = /mnt/beegfs/users/jd01548/methylation/TAUTOMERS/mGs-C_sella/calc/nwchem/nwchem.db
    status          = startup
    nproc           =       54
    time left       =     -1s



           Memory information
           ------------------

    heap     =   13107198 doubles =    100.0 Mbytes
    stack    =   13107195 doubles =    100.0 Mbytes
    global   =   26214400 doubles =    200.0 Mbytes (distinct from heap & stack)
    total    =   52428793 doubles =    400.0 Mbytes
    verify   = yes
    hardfail = no 


           Directory information
           ---------------------
 
  0 permanent = /mnt/beegfs/users/jd01548/methylation/TAUTOMERS/mGs-C_sella/calc/nwchem
  0 scratch   = /mnt/beegfs/users/jd01548/methylation/TAUTOMERS/mGs-C_sella/calc/nwchem
 
 
 
 
                                NWChem Input Module
                                -------------------
 
 
                                      nwchem
                                      ------

 Scaling coordinates for geometry "geometry" by  1.889725989
 (inverse scale =  0.529177249)

 
 
                             Geometry "geometry" -> ""
                             -------------------------
 
 Output coordinates in angstroms (scale by  1.889725989 to convert to a.u.)
 
  No.       Tag          Charge          X              Y              Z
 ---- ---------------- ---------- -------------- -------------- --------------
    1 C                    6.0000     2.18723407     0.17355266     1.43551524
    2 O                    8.0000     2.03405664     1.51369371     0.94815584
    3 C                    6.0000     0.85745756     1.89242928     0.44966127
    4 C                    6.0000     0.73604806     3.21461705    -0.01997796
    5 C                    6.0000    -0.53512266     3.55288019    -0.50456010
    6 N                    7.0000    -0.41570002     4.86147690    -0.90605263
    7 C                    6.0000     0.89461843     5.23745410    -0.64646487
    8 N                    7.0000     1.61393801     4.28471592    -0.11654225
    9 N                    7.0000    -1.62000446     2.77764149    -0.54156886
   10 C                    6.0000    -1.37852015     1.54472999    -0.06941856
   11 N                    7.0000    -0.18587799     1.06132157     0.40087454
   12 N                    7.0000    -2.41981384     0.66642870    -0.08378061
   13 H                    1.0000     3.16043752     0.16267194     1.92722773
   14 H                    1.0000     2.17705942    -0.53936703     0.60750009
   15 H                    1.0000     1.40156108    -0.07179740     2.15555904
   16 H                    1.0000    -1.14966159     5.42315590    -1.30900229
   17 H                    1.0000     1.24830297     6.23357805    -0.87604411
   18 H                    1.0000    -2.40058610    -0.13634541     0.54054173
   19 H                    1.0000    -3.31820907     1.07907186    -0.28107495
   20 C                    6.0000     1.50996118    -5.06147242    -1.23642833
   21 C                    6.0000     0.47649211    -4.23448824    -0.53076059
   22 C                    6.0000    -0.63914840    -4.74052755     0.03840446
   23 N                    7.0000    -1.56236723    -3.94138362     0.68087303
   24 C                    6.0000    -1.44540978    -2.56612934     0.78790077
   25 O                    8.0000    -2.30438457    -1.88890783     1.34623788
   26 N                    7.0000    -0.29915484    -2.05702307     0.22012845
   27 C                    6.0000     0.70221310    -2.78600577    -0.44461776
   28 O                    8.0000     1.68963709    -2.22156017    -0.89856885
   29 H                    1.0000     1.63079957    -4.73004121    -2.27270859
   30 H                    1.0000     1.23906429    -6.12050266    -1.23678152
   31 H                    1.0000     2.48864271    -4.94979194    -0.75888491
   32 H                    1.0000    -0.87336687    -5.79939609     0.02556430
   33 H                    1.0000    -2.40062235    -4.33052349     1.08676002
   34 H                    1.0000    -0.17729893    -1.03413907     0.27909050
 
      Atomic Mass 
      ----------- 
 
      C                 12.000000
      O                 15.994910
      N                 14.003070
      H                  1.007825
 

 Effective nuclear repulsion energy (a.u.)    1653.4015173895

            Nuclear Dipole moment (a.u.) 
            ----------------------------
        X                 Y               Z
 ---------------- ---------------- ----------------
     0.6664580980    -8.7931518087     7.9130182080
 
 
            XYZ format geometry
            -------------------
    34
 geometry
 C                     2.18723407     0.17355266     1.43551524
 O                     2.03405664     1.51369371     0.94815584
 C                     0.85745756     1.89242928     0.44966127
 C                     0.73604806     3.21461705    -0.01997796
 C                    -0.53512266     3.55288019    -0.50456010
 N                    -0.41570002     4.86147690    -0.90605263
 C                     0.89461843     5.23745410    -0.64646487
 N                     1.61393801     4.28471592    -0.11654225
 N                    -1.62000446     2.77764149    -0.54156886
 C                    -1.37852015     1.54472999    -0.06941856
 N                    -0.18587799     1.06132157     0.40087454
 N                    -2.41981384     0.66642870    -0.08378061
 H                     3.16043752     0.16267194     1.92722773
 H                     2.17705942    -0.53936703     0.60750009
 H                     1.40156108    -0.07179740     2.15555904
 H                    -1.14966159     5.42315590    -1.30900229
 H                     1.24830297     6.23357805    -0.87604411
 H                    -2.40058610    -0.13634541     0.54054173
 H                    -3.31820907     1.07907186    -0.28107495
 C                     1.50996118    -5.06147242    -1.23642833
 C                     0.47649211    -4.23448824    -0.53076059
 C                    -0.63914840    -4.74052755     0.03840446
 N                    -1.56236723    -3.94138362     0.68087303
 C                    -1.44540978    -2.56612934     0.78790077
 O                    -2.30438457    -1.88890783     1.34623788
 N                    -0.29915484    -2.05702307     0.22012845
 C                     0.70221310    -2.78600577    -0.44461776
 O                     1.68963709    -2.22156017    -0.89856885
 H                     1.63079957    -4.73004121    -2.27270859
 H                     1.23906429    -6.12050266    -1.23678152
 H                     2.48864271    -4.94979194    -0.75888491
 H                    -0.87336687    -5.79939609     0.02556430
 H                    -2.40062235    -4.33052349     1.08676002
 H                    -0.17729893    -1.03413907     0.27909050
 
 ==============================================================================
                                internuclear distances
 ------------------------------------------------------------------------------
       center one      |      center two      | atomic units |  angstroms
 ------------------------------------------------------------------------------
    2 O                |   1 C                |     2.71027  |     1.43421
    3 C                |   2 O                |     2.51860  |     1.33279
    4 C                |   3 C                |     2.66142  |     1.40836
    5 C                |   4 C                |     2.64907  |     1.40183
    6 N                |   5 C                |     2.59649  |     1.37400
    7 C                |   6 N                |     2.62235  |     1.38769
    8 N                |   4 C                |     2.62197  |     1.38749
    8 N                |   7 C                |     2.46821  |     1.30612
    9 N                |   5 C                |     2.52074  |     1.33392
   10 C                |   9 N                |     2.53626  |     1.34213
   11 N                |   3 C                |     2.52239  |     1.33479
   11 N                |  10 C                |     2.58917  |     1.37013
   12 N                |  10 C                |     2.57441  |     1.36232
   13 H                |   1 C                |     2.06060  |     1.09042
   14 H                |   1 C                |     2.06488  |     1.09269
   15 H                |   1 C                |     2.06659  |     1.09359
   16 H                |   6 N                |     1.90530  |     1.00824
   17 H                |   7 C                |     2.04411  |     1.08169
   18 H                |  12 N                |     1.92214  |     1.01715
   19 H                |  12 N                |     1.90508  |     1.00812
   21 C                |  20 C                |     2.83454  |     1.49998
   22 C                |  21 C                |     2.55265  |     1.35081
   23 N                |  22 C                |     2.60736  |     1.37976
   24 C                |  23 N                |     2.61606  |     1.38436
   25 O                |  24 C                |     2.32076  |     1.22809
   26 N                |  24 C                |     2.60169  |     1.37676
   27 C                |  21 C                |     2.77505  |     1.46849
   27 C                |  26 N                |     2.65642  |     1.40572
   28 O                |  27 C                |     2.31418  |     1.22461
   29 H                |  20 C                |     2.06865  |     1.09468
   30 H                |  20 C                |     2.06571  |     1.09313
   31 H                |  20 C                |     2.06866  |     1.09469
   32 H                |  22 C                |     2.04948  |     1.08454
   33 H                |  23 N                |     1.90745  |     1.00938
   34 H                |  26 N                |     1.94982  |     1.03180
 ------------------------------------------------------------------------------
                         number of included internuclear distances:         35
 ==============================================================================



 ==============================================================================
                                 internuclear angles
 ------------------------------------------------------------------------------
        center 1       |       center 2       |       center 3       |  degrees
 ------------------------------------------------------------------------------
    2 O                |   1 C                |  13 H                |   104.94
    2 O                |   1 C                |  14 H                |   110.56
    2 O                |   1 C                |  15 H                |   110.89
   13 H                |   1 C                |  14 H                |   110.09
   13 H                |   1 C                |  15 H                |   110.00
   14 H                |   1 C                |  15 H                |   110.23
    1 C                |   2 O                |   3 C                |   119.14
    2 O                |   3 C                |   4 C                |   117.88
    2 O                |   3 C                |  11 N                |   121.79
    4 C                |   3 C                |  11 N                |   120.33
    3 C                |   4 C                |   5 C                |   114.83
    3 C                |   4 C                |   8 N                |   133.85
    5 C                |   4 C                |   8 N                |   111.32
    4 C                |   5 C                |   6 N                |   104.60
    4 C                |   5 C                |   9 N                |   127.36
    6 N                |   5 C                |   9 N                |   128.03
    5 C                |   6 N                |   7 C                |   106.59
    5 C                |   6 N                |  16 H                |   125.74
    7 C                |   6 N                |  16 H                |   127.68
    6 N                |   7 C                |   8 N                |   113.47
    6 N                |   7 C                |  17 H                |   121.23
    8 N                |   7 C                |  17 H                |   125.29
    4 C                |   8 N                |   7 C                |   104.03
    5 C                |   9 N                |  10 C                |   112.20
    9 N                |  10 C                |  11 N                |   126.98
    9 N                |  10 C                |  12 N                |   116.81
   11 N                |  10 C                |  12 N                |   116.20
    3 C                |  11 N                |  10 C                |   118.25
   10 C                |  12 N                |  18 H                |   119.20
   10 C                |  12 N                |  19 H                |   114.79
   18 H                |  12 N                |  19 H                |   117.39
   21 C                |  20 C                |  29 H                |   110.76
   21 C                |  20 C                |  30 H                |   111.32
   21 C                |  20 C                |  31 H                |   110.76
   29 H                |  20 C                |  30 H                |   108.69
   29 H                |  20 C                |  31 H                |   106.46
   30 H                |  20 C                |  31 H                |   108.70
   20 C                |  21 C                |  22 C                |   124.11
   20 C                |  21 C                |  27 C                |   117.74
   22 C                |  21 C                |  27 C                |   118.15
   21 C                |  22 C                |  23 N                |   122.13
   21 C                |  22 C                |  32 H                |   122.62
   23 N                |  22 C                |  32 H                |   115.25
   22 C                |  23 N                |  24 C                |   123.70
   22 C                |  23 N                |  33 H                |   121.31
   24 C                |  23 N                |  33 H                |   114.96
   23 N                |  24 C                |  25 O                |   121.59
   23 N                |  24 C                |  26 N                |   113.94
   25 O                |  24 C                |  26 N                |   124.47
   24 C                |  26 N                |  27 C                |   126.61
   24 C                |  26 N                |  34 H                |   116.19
   27 C                |  26 N                |  34 H                |   117.19
   21 C                |  27 C                |  26 N                |   115.45
   21 C                |  27 C                |  28 O                |   123.84
   26 N                |  27 C                |  28 O                |   120.71
 ------------------------------------------------------------------------------
                            number of included internuclear angles:         55
 ==============================================================================



 
                                 NWChem DFT Module
                                 -----------------
 
 
                                      nwchem
 
 


 Summary of "ao basis" -> "ao basis" (cartesian)
 ------------------------------------------------------------------------------
       Tag                 Description            Shells   Functions and Types
 ---------------- ------------------------------  ------  ---------------------
 C                          6-31G**                  6       15   3s2p1d
 O                          6-31G**                  6       15   3s2p1d
 N                          6-31G**                  6       15   3s2p1d
 H                          6-31G**                  3        5   2s1p


  Caching 1-el integrals 
 
            General Information
            -------------------
          SCF calculation type: DFT
          Wavefunction type:  closed shell.
          No. of atoms     :    34
          No. of electrons :   152
           Alpha electrons :    76
            Beta electrons :    76
          Charge           :     0
          Spin multiplicity:     1
          Use of symmetry is: off; symmetry adaption is: off
          Maximum number of iterations: ***
          This is a Direct SCF calculation.
          AO basis - number of functions:   380
                     number of shells:   165
          Convergence on energy requested:  1.00D-06
          Convergence on density requested:  1.00D-05
          Convergence on gradient requested:  5.00D-04
 
              XC Information
              --------------
                         B3LYP Method XC Potential
                     Hartree-Fock (Exact) Exchange  0.200          
                        Slater Exchange Functional  0.800 local    
                    Becke 1988 Exchange Functional  0.720 non-local
              Lee-Yang-Parr Correlation Functional  0.810          
                  VWN I RPA Correlation Functional  0.190 local    
 
             Grid Information
             ----------------
          Grid used for XC integration:  fine      
          Radial quadrature: Mura-Knowles        
          Angular quadrature: Lebedev. 
          Tag              B.-S. Rad. Rad. Pts. Rad. Cut. Ang. Pts.
          ---              ---------- --------- --------- ---------
          C                   0.70       70          15.0       590
          O                   0.60       70          14.0       590
          N                   0.65       70          14.0       590
          H                   0.35       60          14.0       590
          Grid pruning is: on 
          Number of quadrature shells:  2250
          Spatial weights used:  Erf1
 
          Convergence Information
          -----------------------
          Convergence aids based upon iterative change in 
          total energy or number of iterations. 
          Levelshifting, if invoked, occurs when the 
          HOMO/LUMO gap drops below (HL_TOL):  1.00D-02
          DIIS, if invoked, will attempt to extrapolate 
          using up to (NFOCK): 10 stored Fock matrices.

                    Damping( 0%)  Levelshifting(0.5)       DIIS
                  --------------- ------------------- ---------------
          dE  on:    start            ASAP                start   
          dE off:    2 iters        *** iters           *** iters 

 
      Screening Tolerance Information
      -------------------------------
          Density screening/tol_rho:  1.00D-10
          AO Gaussian exp screening on grid/accAOfunc:  14
          CD Gaussian exp screening on grid/accCDfunc:  20
          XC Gaussian exp screening on grid/accXCfunc:  20
          Schwarz screening/accCoul:  1.00D-08

 
      Superposition of Atomic Density Guess
      -------------------------------------
 
 Sum of atomic energies:       -1025.05904306
 
      Non-variational initial energy
      ------------------------------

 Total energy =   -1038.472013
 1-e energy   =   -4683.631758
 2-e energy   =    1991.758228
 HOMO         =      -0.202188
 LUMO         =       0.004760
 
   Time after variat. SCF:      1.4
   Time prior to 1st pass:      1.4
 Grid integrated density:     152.000017810493
 Requested integration accuracy:   0.10E-06

           Memory utilization after 1st SCF pass: 
           Heap Space remaining (MW):       13.04            13043150
          Stack Space remaining (MW):       13.10            13103844

   convergence    iter        energy       DeltaE   RMS-Dens  Diis-err    time
 ---------------- ----- ----------------- --------- --------- ---------  ------
 d= 0,ls=0.0,diis     1  -1035.5391209513 -2.69D+03  1.08D-02  4.68D+00     2.9
 Grid integrated density:     152.000017668530
 Requested integration accuracy:   0.10E-06
 d= 0,ls=0.0,diis     2  -1034.3837433253  1.16D+00  8.63D-03  1.61D+01     4.3
 Grid integrated density:     152.000016603090
 Requested integration accuracy:   0.10E-06
 d= 0,ls=0.0,diis     3  -1035.9513322123 -1.57D+00  2.24D-03  8.25D-01     5.7
 Grid integrated density:     152.000017081931
 Requested integration accuracy:   0.10E-06
 d= 0,ls=0.0,diis     4  -1036.0085501650 -5.72D-02  9.38D-04  2.54D-01     7.1
 Grid integrated density:     152.000017176355
 Requested integration accuracy:   0.10E-06
 d= 0,ls=0.0,diis     5  -1036.0328274093 -2.43D-02  2.76D-04  1.44D-02     8.6
 Grid integrated density:     152.000016372442
 Requested integration accuracy:   0.10E-06
  Resetting Diis
 d= 0,ls=0.0,diis     6  -1036.0340931634 -1.27D-03  1.07D-04  2.55D-03    10.4
 Grid integrated density:     152.000016359421
 Requested integration accuracy:   0.10E-06
 d= 0,ls=0.0,diis     7  -1036.0343531335 -2.60D-04  8.42D-05  2.28D-04    12.2
 Grid integrated density:     152.000016373899
 Requested integration accuracy:   0.10E-06
 d= 0,ls=0.0,diis     8  -1036.0342771597  7.60D-05  5.68D-05  8.84D-04    14.0
 Grid integrated density:     152.000016372290
 Requested integration accuracy:   0.10E-06
 d= 0,ls=0.0,diis     9  -1036.0343778470 -1.01D-04  7.78D-06  1.30D-05    15.7
 Grid integrated density:     152.000016368343
 Requested integration accuracy:   0.10E-06
 d= 0,ls=0.0,diis    10  -1036.0343792175 -1.37D-06  2.04D-06  6.31D-07    17.5
 Grid integrated density:     152.000016368429
 Requested integration accuracy:   0.10E-06
 d= 0,ls=0.0,diis    11  -1036.0343792776 -6.00D-08  7.63D-07  9.71D-08    19.3


         Total DFT energy =    -1036.034379277550
      One electron energy =    -4696.237598685248
           Coulomb energy =     2145.626967531491
    Exchange-Corr. energy =     -138.825265513258
 Nuclear repulsion energy =     1653.401517389465

 Numeric. integr. density =      152.000016368429

     Total iterative time =     17.9s


 
                       DFT Final Molecular Orbital Analysis
                       ------------------------------------
 
 Vector    1  Occ=2.000000D+00  E=-1.918068D+01
              MO Center=  2.0D+00,  1.5D+00,  9.5D-01, r^2= 1.5D-02
   Bfn.  Coefficient  Atom+Function         Bfn.  Coefficient  Atom+Function  
  ----- ------------  ---------------      ----- ------------  ---------------
    16      0.992609   2 O  s                17      0.025423   2 O  s         
 
 Vector    2  Occ=2.000000D+00  E=-1.913823D+01
              MO Center= -2.3D+00, -1.9D+00,  1.3D+00, r^2= 1.5D-02
   Bfn.  Coefficient  Atom+Function         Bfn.  Coefficient  Atom+Function  
  ----- ------------  ---------------      ----- ------------  ---------------
   291      0.992626  25 O  s               292      0.025247  25 O  s         
 
 Vector    3  Occ=2.000000D+00  E=-1.912932D+01
              MO Center=  1.7D+00, -2.2D+00, -9.0D-01, r^2= 1.5D-02
   Bfn.  Coefficient  Atom+Function         Bfn.  Coefficient  Atom+Function  
  ----- ------------  ---------------      ----- ------------  ---------------
   336      0.992630  28 O  s               337      0.025213  28 O  s         
 
 Vector    4  Occ=2.000000D+00  E=-1.441007D+01
              MO Center= -1.6D+00, -3.9D+00,  6.8D-01, r^2= 2.0D-02
   Bfn.  Coefficient  Atom+Function         Bfn.  Coefficient  Atom+Function  
  ----- ------------  ---------------      ----- ------------  ---------------
   261      0.992600  23 N  s               262      0.034943  23 N  s         
 
 Vector    5  Occ=2.000000D+00  E=-1.438630D+01
              MO Center= -4.2D-01,  4.9D+00, -9.1D-01, r^2= 2.0D-02
   Bfn.  Coefficient  Atom+Function         Bfn.  Coefficient  Atom+Function  
  ----- ------------  ---------------      ----- ------------  ---------------
    76      0.992619   6 N  s                77      0.034935   6 N  s         
 
 Vector    6  Occ=2.000000D+00  E=-1.438470D+01
              MO Center= -3.0D-01, -2.1D+00,  2.2D-01, r^2= 2.0D-02
   Bfn.  Coefficient  Atom+Function         Bfn.  Coefficient  Atom+Function  
  ----- ------------  ---------------      ----- ------------  ---------------
   306      0.992587  26 N  s               307      0.034959  26 N  s         
 
 Vector    7  Occ=2.000000D+00  E=-1.432761D+01
              MO Center= -2.4D+00,  6.7D-01, -8.4D-02, r^2= 2.0D-02
   Bfn.  Coefficient  Atom+Function         Bfn.  Coefficient  Atom+Function  
  ----- ------------  ---------------      ----- ------------  ---------------
   166      0.992616  12 N  s               167      0.034847  12 N  s         
 
 Vector    8  Occ=2.000000D+00  E=-1.432329D+01
              MO Center= -1.9D-01,  1.1D+00,  4.0D-01, r^2= 2.0D-02
   Bfn.  Coefficient  Atom+Function         Bfn.  Coefficient  Atom+Function  
  ----- ------------  ---------------      ----- ------------  ---------------
   151      0.992718  11 N  s               152      0.034891  11 N  s         
 
 Vector    9  Occ=2.000000D+00  E=-1.431587D+01
              MO Center=  1.6D+00,  4.3D+00, -1.2D-01, r^2= 2.0D-02
   Bfn.  Coefficient  Atom+Function         Bfn.  Coefficient  Atom+Function  
  ----- ------------  ---------------      ----- ------------  ---------------
   106      0.992762   8 N  s               107      0.034607   8 N  s         
 
 Vector   10  Occ=2.000000D+00  E=-1.431212D+01
              MO Center= -1.6D+00,  2.8D+00, -5.4D-01, r^2= 2.0D-02
   Bfn.  Coefficient  Atom+Function         Bfn.  Coefficient  Atom+Function  
  ----- ------------  ---------------      ----- ------------  ---------------
   121      0.992726   9 N  s               122      0.034760   9 N  s         
 
 Vector   11  Occ=2.000000D+00  E=-1.034469D+01
              MO Center= -1.4D+00, -2.6D+00,  7.9D-01, r^2= 2.8D-02
   Bfn.  Coefficient  Atom+Function         Bfn.  Coefficient  Atom+Function  
  ----- ------------  ---------------      ----- ------------  ---------------
   276      0.992918  24 C  s               277      0.048164  24 C  s         
 
 Vector   12  Occ=2.000000D+00  E=-1.030629D+01
              MO Center=  7.0D-01, -2.8D+00, -4.4D-01, r^2= 2.8D-02
   Bfn.  Coefficient  Atom+Function         Bfn.  Coefficient  Atom+Function  
  ----- ------------  ---------------      ----- ------------  ---------------
   321      0.992992  27 C  s               322      0.048876  27 C  s         
 
 Vector   13  Occ=2.000000D+00  E=-1.028591D+01
              MO Center=  8.6D-01,  1.9D+00,  4.5D-01, r^2= 2.8D-02
   Bfn.  Coefficient  Atom+Function         Bfn.  Coefficient  Atom+Function  
  ----- ------------  ---------------      ----- ------------  ---------------
    31      0.992977   3 C  s                32      0.048944   3 C  s         
 
 Vector   14  Occ=2.000000D+00  E=-1.028211D+01
              MO Center= -1.4D+00,  1.5D+00, -6.9D-02, r^2= 2.8D-02
   Bfn.  Coefficient  Atom+Function         Bfn.  Coefficient  Atom+Function  
  ----- ------------  ---------------      ----- ------------  ---------------
   136      0.992877  10 C  s               137      0.048254  10 C  s         
 
 Vector   15  Occ=2.000000D+00  E=-1.026716D+01
              MO Center= -6.4D-01, -4.7D+00,  3.8D-02, r^2= 2.8D-02
   Bfn.  Coefficient  Atom+Function         Bfn.  Coefficient  Atom+Function  
  ----- ------------  ---------------      ----- ------------  ---------------
   246      0.992759  22 C  s               247      0.049101  22 C  s         
 
 Vector   16  Occ=2.000000D+00  E=-1.024919D+01
              MO Center= -5.4D-01,  3.6D+00, -5.0D-01, r^2= 2.8D-02
   Bfn.  Coefficient  Atom+Function         Bfn.  Coefficient  Atom+Function  
  ----- ------------  ---------------      ----- ------------  ---------------
    61      0.992858   5 C  s                62      0.049510   5 C  s         
 
 Vector   17  Occ=2.000000D+00  E=-1.024634D+01
              MO Center=  8.9D-01,  5.2D+00, -6.5D-01, r^2= 2.8D-02
   Bfn.  Coefficient  Atom+Function         Bfn.  Coefficient  Atom+Function  
  ----- ------------  ---------------      ----- ------------  ---------------
    91      0.992766   7 C  s                92      0.048844   7 C  s         
 
 Vector   18  Occ=2.000000D+00  E=-1.022466D+01
              MO Center=  2.2D+00,  1.7D-01,  1.4D+00, r^2= 2.8D-02
   Bfn.  Coefficient  Atom+Function         Bfn.  Coefficient  Atom+Function  
  ----- ------------  ---------------      ----- ------------  ---------------
     1      0.993008   1 C  s                 2      0.049426   1 C  s         
 
 Vector   19  Occ=2.000000D+00  E=-1.021642D+01
              MO Center=  4.8D-01, -4.2D+00, -5.3D-01, r^2= 2.8D-02
   Bfn.  Coefficient  Atom+Function         Bfn.  Coefficient  Atom+Function  
  ----- ------------  ---------------      ----- ------------  ---------------
   231      0.992784  21 C  s               232      0.049972  21 C  s         
 
 Vector   20  Occ=2.000000D+00  E=-1.019662D+01
              MO Center=  1.5D+00, -5.1D+00, -1.2D+00, r^2= 2.8D-02
   Bfn.  Coefficient  Atom+Function         Bfn.  Coefficient  Atom+Function  
  ----- ------------  ---------------      ----- ------------  ---------------
   216      0.992940  20 C  s               217      0.050017  20 C  s         
 
 Vector   21  Occ=2.000000D+00  E=-1.019576D+01
              MO Center=  7.4D-01,  3.2D+00, -2.0D-02, r^2= 2.8D-02
   Bfn.  Coefficient  Atom+Function         Bfn.  Coefficient  Atom+Function  
  ----- ------------  ---------------      ----- ------------  ---------------
    46      0.992820   4 C  s                47      0.050347   4 C  s         
 
 Vector   22  Occ=2.000000D+00  E=-1.079804D+00
              MO Center= -1.4D+00, -2.4D+00,  7.9D-01, r^2= 2.2D+00
   Bfn.  Coefficient  Atom+Function         Bfn.  Coefficient  Atom+Function  
  ----- ------------  ---------------      ----- ------------  ---------------
   292      0.296417  25 O  s               296      0.293370  25 O  s         
   277      0.266107  24 C  s               266      0.182261  23 N  s         
   311      0.173227  26 N  s               262      0.157607  23 N  s         
   307      0.147403  26 N  s               291     -0.139056  25 O  s         
   276     -0.132474  24 C  s               322      0.096816  27 C  s         
 
 Vector   23  Occ=2.000000D+00  E=-1.075926D+00
              MO Center=  1.7D+00,  1.4D+00,  8.6D-01, r^2= 1.1D+00
   Bfn.  Coefficient  Atom+Function         Bfn.  Coefficient  Atom+Function  
  ----- ------------  ---------------      ----- ------------  ---------------
    21      0.454514   2 O  s                17      0.414288   2 O  s         
    16     -0.192272   2 O  s                32      0.180365   3 C  s         
     2      0.101138   1 C  s                18     -0.096117   2 O  px        
    31     -0.093837   3 C  s                33      0.088485   3 C  px        
     4      0.073461   1 C  py              152      0.072475  11 N  s         
 
 Vector   24  Occ=2.000000D+00  E=-1.043862D+00
              MO Center=  8.4D-01, -2.4D+00, -4.5D-01, r^2= 2.4D+00
   Bfn.  Coefficient  Atom+Function         Bfn.  Coefficient  Atom+Function  
  ----- ------------  ---------------      ----- ------------  ---------------
   341      0.387679  28 O  s               337      0.362943  28 O  s         
   322      0.236447  27 C  s               296     -0.172217  25 O  s         
   336     -0.171214  28 O  s               292     -0.146717  25 O  s         
   321     -0.121880  27 C  s               338     -0.118766  28 O  px        
   323      0.111700  27 C  px              324      0.082494  27 C  py        
 
 Vector   25  Occ=2.000000D+00  E=-1.018894D+00
              MO Center=  6.0D-02,  4.1D+00, -5.2D-01, r^2= 2.3D+00
   Bfn.  Coefficient  Atom+Function         Bfn.  Coefficient  Atom+Function  
  ----- ------------  ---------------      ----- ------------  ---------------
    81      0.323230   6 N  s                77      0.264186   6 N  s         
   111      0.209425   8 N  s                62      0.186069   5 C  s         
    92      0.170540   7 C  s               107      0.150643   8 N  s         
    76     -0.133053   6 N  s               126      0.118891   9 N  s         
    47      0.116005   4 C  s               122      0.103199   9 N  s         
 
 Vector   26  Occ=2.000000D+00  E=-9.817446D-01
              MO Center= -1.3D+00, -3.3D+00,  6.1D-01, r^2= 2.8D+00
   Bfn.  Coefficient  Atom+Function         Bfn.  Coefficient  Atom+Function  
  ----- ------------  ---------------      ----- ------------  ---------------
   266      0.364836  23 N  s               262      0.299996  23 N  s         
   296     -0.264150  25 O  s               292     -0.241998  25 O  s         
   247      0.160045  22 C  s               279     -0.153789  24 C  py        
   261     -0.148103  23 N  s               311      0.126937  26 N  s         
   291      0.113261  25 O  s               278      0.110477  24 C  px        
 
 Vector   27  Occ=2.000000D+00  E=-9.749678D-01
              MO Center= -9.0D-01,  2.0D+00, -9.7D-02, r^2= 3.7D+00
   Bfn.  Coefficient  Atom+Function         Bfn.  Coefficient  Atom+Function  
  ----- ------------  ---------------      ----- ------------  ---------------
   137      0.249906  10 C  s               126      0.217317   9 N  s         
   156      0.213983  11 N  s               171      0.198624  12 N  s         
   152      0.186389  11 N  s               122      0.180625   9 N  s         
   167      0.167250  12 N  s                81     -0.146635   6 N  s         
   136     -0.124473  10 C  s                77     -0.109742   6 N  s         
 
 Vector   28  Occ=2.000000D+00  E=-9.262468D-01
              MO Center= -4.5D-01, -2.5D+00,  2.4D-01, r^2= 2.3D+00
   Bfn.  Coefficient  Atom+Function         Bfn.  Coefficient  Atom+Function  
  ----- ------------  ---------------      ----- ------------  ---------------
   311      0.427680  26 N  s               307      0.349428  26 N  s         
   266     -0.198378  23 N  s               262     -0.185099  23 N  s         
   306     -0.171038  26 N  s               341     -0.170579  28 O  s         
   337     -0.153988  28 O  s               278      0.143992  24 C  px        
   323     -0.144018  27 C  px              376      0.096450  34 H  s         
 
 Vector   29  Occ=2.000000D+00  E=-8.869244D-01
              MO Center=  1.3D-01,  3.4D+00, -2.4D-01, r^2= 3.8D+00
   Bfn.  Coefficient  Atom+Function         Bfn.  Coefficient  Atom+Function  
  ----- ------------  ---------------      ----- ------------  ---------------
   111      0.267797   8 N  s               107      0.232471   8 N  s         
   156      0.222614  11 N  s               126     -0.204388   9 N  s         
    81     -0.187107   6 N  s               122     -0.182964   9 N  s         
    77     -0.171210   6 N  s               152      0.167083  11 N  s         
    62     -0.135466   5 C  s                47      0.117886   4 C  s         
 
 Vector   30  Occ=2.000000D+00  E=-8.807839D-01
              MO Center= -1.5D+00,  1.3D+00,  2.0D-02, r^2= 3.2D+00
   Bfn.  Coefficient  Atom+Function         Bfn.  Coefficient  Atom+Function  
  ----- ------------  ---------------      ----- ------------  ---------------
   171      0.382458  12 N  s               167      0.341592  12 N  s         
   156     -0.179101  11 N  s               166     -0.167209  12 N  s         
   138     -0.153168  10 C  px              152     -0.140206  11 N  s         
    32     -0.115562   3 C  s               211      0.109831  19 H  s         
   139     -0.102136  10 C  py              206      0.100363  18 H  s         
 
 Vector   31  Occ=2.000000D+00  E=-8.573887D-01
              MO Center= -2.4D-01,  3.2D+00, -3.1D-01, r^2= 4.0D+00
   Bfn.  Coefficient  Atom+Function         Bfn.  Coefficient  Atom+Function  
  ----- ------------  ---------------      ----- ------------  ---------------
   126     -0.296008   9 N  s                81      0.291322   6 N  s         
   156      0.246512  11 N  s                77      0.229831   6 N  s         
   111     -0.214426   8 N  s               122     -0.211116   9 N  s         
   152      0.199792  11 N  s               107     -0.182653   8 N  s         
    64      0.125597   5 C  py              139     -0.123096  10 C  py        
 
 Vector   32  Occ=2.000000D+00  E=-8.198880D-01
              MO Center=  1.8D-01, -4.2D+00, -3.6D-01, r^2= 2.5D+00
   Bfn.  Coefficient  Atom+Function         Bfn.  Coefficient  Atom+Function  
  ----- ------------  ---------------      ----- ------------  ---------------
   232      0.299734  21 C  s               247      0.194541  22 C  s         
   236      0.190207  21 C  s               217      0.173828  20 C  s         
   231     -0.154029  21 C  s               251      0.150162  22 C  s         
   266     -0.140108  23 N  s               221      0.127881  20 C  s         
   262     -0.117592  23 N  s               324     -0.115945  27 C  py        
 
 Vector   33  Occ=2.000000D+00  E=-7.545861D-01
              MO Center=  6.1D-01,  2.4D+00,  2.4D-01, r^2= 5.5D+00
   Bfn.  Coefficient  Atom+Function         Bfn.  Coefficient  Atom+Function  
  ----- ------------  ---------------      ----- ------------  ---------------
    47      0.206677   4 C  s                32      0.177697   3 C  s         
     2     -0.168113   1 C  s                92     -0.159811   7 C  s         
    51      0.146623   4 C  s               156     -0.146922  11 N  s         
    36      0.134673   3 C  s                19      0.133127   2 O  py        
   171      0.130841  12 N  s                62      0.127675   5 C  s         
 
 Vector   34  Occ=2.000000D+00  E=-7.192786D-01
              MO Center=  2.0D-01, -4.4D+00, -3.9D-01, r^2= 4.6D+00
   Bfn.  Coefficient  Atom+Function         Bfn.  Coefficient  Atom+Function  
  ----- ------------  ---------------      ----- ------------  ---------------
   217      0.272067  20 C  s               221      0.238137  20 C  s         
   247     -0.229141  22 C  s               264      0.186470  23 N  py        
   251     -0.161064  22 C  s               216     -0.139271  20 C  s         
   233      0.139479  21 C  px              277      0.133183  24 C  s         
   279     -0.122341  24 C  py              246      0.110318  22 C  s         
 
 Vector   35  Occ=2.000000D+00  E=-7.101512D-01
              MO Center=  1.1D+00,  2.0D+00,  4.9D-01, r^2= 7.5D+00
   Bfn.  Coefficient  Atom+Function         Bfn.  Coefficient  Atom+Function  
  ----- ------------  ---------------      ----- ------------  ---------------
     2      0.265526   1 C  s                 6      0.218872   1 C  s         
    19     -0.154898   2 O  py               62      0.155234   5 C  s         
    92     -0.142258   7 C  s                79     -0.133745   6 N  py        
     1     -0.131654   1 C  s                18      0.121273   2 O  px        
    47      0.120918   4 C  s                33     -0.117981   3 C  px        
 
 Vector   36  Occ=2.000000D+00  E=-6.778030D-01
              MO Center= -5.9D-02, -3.6D+00, -1.3D-01, r^2= 4.4D+00
   Bfn.  Coefficient  Atom+Function         Bfn.  Coefficient  Atom+Function  
  ----- ------------  ---------------      ----- ------------  ---------------
   264      0.207094  23 N  py              309     -0.179862  26 N  py        
   217     -0.168181  20 C  s               322      0.167530  27 C  s         
   221     -0.163457  20 C  s               311     -0.155116  26 N  s         
   234      0.152529  21 C  py              279     -0.152362  24 C  py        
   324     -0.133318  27 C  py              326      0.122662  27 C  s         
 
 Vector   37  Occ=2.000000D+00  E=-6.628392D-01
              MO Center= -6.0D-01, -3.0D+00,  2.6D-01, r^2= 3.1D+00
   Bfn.  Coefficient  Atom+Function         Bfn.  Coefficient  Atom+Function  
  ----- ------------  ---------------      ----- ------------  ---------------
   308      0.276870  26 N  px              277     -0.203940  24 C  s         
   322      0.184013  27 C  s               341     -0.180658  28 O  s         
   263     -0.172378  23 N  px              278     -0.163700  24 C  px        
   310     -0.152137  26 N  pz              371      0.148671  33 H  s         
   323     -0.135123  27 C  px              264     -0.129948  23 N  py        
 
 Vector   38  Occ=2.000000D+00  E=-6.378443D-01
              MO Center=  2.2D-01,  2.3D+00,  1.4D-01, r^2= 7.3D+00
   Bfn.  Coefficient  Atom+Function         Bfn.  Coefficient  Atom+Function  
  ----- ------------  ---------------      ----- ------------  ---------------
   153      0.189449  11 N  px               79      0.181087   6 N  py        
    32      0.173542   3 C  s                21     -0.160058   2 O  s         
     2      0.155279   1 C  s                 6      0.153142   1 C  s         
    49     -0.146685   4 C  py               92      0.135312   7 C  s         
   137     -0.125241  10 C  s                17     -0.123992   2 O  s         
 
 Vector   39  Occ=2.000000D+00  E=-6.290950D-01
              MO Center= -4.5D-01,  2.4D+00, -9.4D-02, r^2= 5.4D+00
   Bfn.  Coefficient  Atom+Function         Bfn.  Coefficient  Atom+Function  
  ----- ------------  ---------------      ----- ------------  ---------------
   137      0.213696  10 C  s                34      0.208406   3 C  py        
   124     -0.189150   9 N  py               47      0.173430   4 C  s         
   153     -0.158610  11 N  px               51      0.152543   4 C  s         
   141      0.150819  10 C  s                63      0.142864   5 C  px        
    62     -0.138666   5 C  s                79      0.131675   6 N  py        
 
 Vector   40  Occ=2.000000D+00  E=-6.126337D-01
              MO Center=  4.4D-02,  4.5D+00, -6.4D-01, r^2= 3.2D+00
   Bfn.  Coefficient  Atom+Function         Bfn.  Coefficient  Atom+Function  
  ----- ------------  ---------------      ----- ------------  ---------------
    78      0.325064   6 N  px              111     -0.249053   8 N  s         
   196     -0.207613  16 H  s               107     -0.187971   8 N  s         
    48     -0.179436   4 C  px               92      0.179497   7 C  s         
    63      0.158613   5 C  px               96      0.150904   7 C  s         
    82      0.130734   6 N  px               80      0.120640   6 N  pz        
 
 Vector   41  Occ=2.000000D+00  E=-5.754992D-01
              MO Center= -5.1D-01,  1.2D+00, -5.2D-02, r^2= 1.2D+01
   Bfn.  Coefficient  Atom+Function         Bfn.  Coefficient  Atom+Function  
  ----- ------------  ---------------      ----- ------------  ---------------
   153      0.176668  11 N  px              138     -0.161034  10 C  px        
    34     -0.156550   3 C  py              124     -0.155749   9 N  py        
   169      0.154760  12 N  py               64      0.140701   5 C  py        
    79     -0.120196   6 N  py               94     -0.110806   7 C  py        
   139      0.110490  10 C  py              123     -0.108669   9 N  px        
 
 Vector   42  Occ=2.000000D+00  E=-5.726852D-01
              MO Center= -5.1D-01, -3.0D+00,  4.4D-02, r^2= 9.9D+00
   Bfn.  Coefficient  Atom+Function         Bfn.  Coefficient  Atom+Function  
  ----- ------------  ---------------      ----- ------------  ---------------
   263      0.276091  23 N  px              248     -0.184639  22 C  px        
   309     -0.166198  26 N  py              232     -0.161958  21 C  s         
   236     -0.162306  21 C  s               265     -0.159973  23 N  pz        
   296      0.153143  25 O  s               371     -0.153715  33 H  s         
   250      0.123073  22 C  pz              221      0.118958  20 C  s         
 
 Vector   43  Occ=2.000000D+00  E=-5.648605D-01
              MO Center= -2.7D-01, -3.0D+00, -5.7D-03, r^2= 6.1D+00
   Bfn.  Coefficient  Atom+Function         Bfn.  Coefficient  Atom+Function  
  ----- ------------  ---------------      ----- ------------  ---------------
   264      0.246785  23 N  py              324      0.247337  27 C  py        
   279     -0.219646  24 C  py              308      0.202736  26 N  px        
   234     -0.188661  21 C  py              233     -0.125739  21 C  px        
   248      0.126264  22 C  px              278     -0.120411  24 C  px        
   251      0.114482  22 C  s               310     -0.113840  26 N  pz        
 
 Vector   44  Occ=2.000000D+00  E=-5.384236D-01
              MO Center=  6.2D-01,  9.7D-01,  6.0D-01, r^2= 8.3D+00
   Bfn.  Coefficient  Atom+Function         Bfn.  Coefficient  Atom+Function  
  ----- ------------  ---------------      ----- ------------  ---------------
     4      0.215235   1 C  py               18      0.211991   2 O  px        
    33     -0.190932   3 C  px              168     -0.189593  12 N  px        
    19     -0.172829   2 O  py               21      0.143208   2 O  s         
   139      0.131991  10 C  py                6     -0.124274   1 C  s         
    20      0.124011   2 O  pz               79      0.110516   6 N  py        
 
 Vector   45  Occ=2.000000D+00  E=-5.206899D-01
              MO Center= -5.0D-01, -1.9D+00,  1.4D-01, r^2= 1.2D+01
   Bfn.  Coefficient  Atom+Function         Bfn.  Coefficient  Atom+Function  
  ----- ------------  ---------------      ----- ------------  ---------------
   309      0.314710  26 N  py              249      0.251835  22 C  py        
   376      0.186441  34 H  s               366     -0.163059  32 H  s         
   313      0.158110  26 N  py              263      0.136474  23 N  px        
   266      0.131655  23 N  s               367     -0.121411  32 H  s         
    93     -0.112839   7 C  px              109     -0.095861   8 N  py        
 
 Vector   46  Occ=2.000000D+00  E=-5.087447D-01
              MO Center= -3.4D-01,  1.9D+00, -9.2D-02, r^2= 1.3D+01
   Bfn.  Coefficient  Atom+Function         Bfn.  Coefficient  Atom+Function  
  ----- ------------  ---------------      ----- ------------  ---------------
    93      0.230810   7 C  px              169      0.215758  12 N  py        
    78     -0.201688   6 N  px              126     -0.175292   9 N  s         
   109      0.166157   8 N  py              309      0.149356  26 N  py        
   206     -0.140404  18 H  s                48     -0.122812   4 C  px        
   138     -0.123041  10 C  px              170     -0.112321  12 N  pz        
 
 Vector   47  Occ=2.000000D+00  E=-4.837280D-01
              MO Center= -8.2D-01, -2.6D+00,  3.3D-01, r^2= 5.3D+00
   Bfn.  Coefficient  Atom+Function         Bfn.  Coefficient  Atom+Function  
  ----- ------------  ---------------      ----- ------------  ---------------
   280      0.255941  24 C  pz              265      0.207999  23 N  pz        
   310      0.200159  26 N  pz              295      0.144253  25 O  pz        
   325      0.137733  27 C  pz              269      0.134164  23 N  pz        
   263      0.133442  23 N  px              250      0.125159  22 C  pz        
   314      0.122995  26 N  pz              278      0.116591  24 C  px        
 
 Vector   48  Occ=2.000000D+00  E=-4.778712D-01
              MO Center= -4.1D-01, -2.5D+00,  1.1D-01, r^2= 1.0D+01
   Bfn.  Coefficient  Atom+Function         Bfn.  Coefficient  Atom+Function  
  ----- ------------  ---------------      ----- ------------  ---------------
   341      0.242056  28 O  s               296      0.179510  25 O  s         
   249      0.165244  22 C  py              338      0.156892  28 O  px        
   248      0.155927  22 C  px              294      0.155102  25 O  py        
   278      0.153188  24 C  px              366     -0.141854  32 H  s         
   339      0.134089  28 O  py              309     -0.131493  26 N  py        
 
 Vector   49  Occ=2.000000D+00  E=-4.762764D-01
              MO Center= -4.1D-01,  1.4D+00,  2.1D-01, r^2= 7.9D+00
   Bfn.  Coefficient  Atom+Function         Bfn.  Coefficient  Atom+Function  
  ----- ------------  ---------------      ----- ------------  ---------------
   168      0.293776  12 N  px               19     -0.193959   2 O  py        
   138     -0.192721  10 C  px              211     -0.172553  19 H  s         
   153      0.158727  11 N  px              172      0.148904  12 N  px        
    79      0.145078   6 N  py               34     -0.143333   3 C  py        
    64     -0.132954   5 C  py                3     -0.132246   1 C  px        
 
 Vector   50  Occ=2.000000D+00  E=-4.706645D-01
              MO Center=  9.6D-01,  1.6D+00,  5.4D-01, r^2= 5.5D+00
   Bfn.  Coefficient  Atom+Function         Bfn.  Coefficient  Atom+Function  
  ----- ------------  ---------------      ----- ------------  ---------------
    20      0.257224   2 O  pz                5      0.211521   1 C  pz        
    35      0.189306   3 C  pz               24      0.154796   2 O  pz        
   155      0.124037  11 N  pz               65      0.119711   5 C  pz        
   186     -0.110398  14 H  s                50      0.105569   4 C  pz        
   125      0.103503   9 N  pz              191      0.099462  15 H  s         
 
 Vector   51  Occ=2.000000D+00  E=-4.618734D-01
              MO Center= -3.9D-01,  9.1D-01, -1.4D-01, r^2= 1.4D+01
   Bfn.  Coefficient  Atom+Function         Bfn.  Coefficient  Atom+Function  
  ----- ------------  ---------------      ----- ------------  ---------------
   124     -0.209187   9 N  py              109      0.190965   8 N  py        
   169     -0.184778  12 N  py              139      0.168622  10 C  py        
    63      0.149592   5 C  px               93      0.131493   7 C  px        
   249     -0.128789  22 C  py               94     -0.126365   7 C  py        
   341     -0.126061  28 O  s               206      0.124067  18 H  s         
 
 Vector   52  Occ=2.000000D+00  E=-4.575739D-01
              MO Center=  4.2D-02,  1.7D+00,  2.4D-01, r^2= 8.2D+00
   Bfn.  Coefficient  Atom+Function         Bfn.  Coefficient  Atom+Function  
  ----- ------------  ---------------      ----- ------------  ---------------
    18      0.196091   2 O  px              168      0.189163  12 N  px        
     3      0.166436   1 C  px               33     -0.154654   3 C  px        
    48      0.151078   4 C  px               63     -0.145181   5 C  px        
   153      0.145459  11 N  px              138     -0.144644  10 C  px        
    36      0.137437   3 C  s                49     -0.128329   4 C  py        
 
 Vector   53  Occ=2.000000D+00  E=-4.440111D-01
              MO Center= -1.0D+00, -4.3D-01,  5.7D-01, r^2= 1.4D+01
   Bfn.  Coefficient  Atom+Function         Bfn.  Coefficient  Atom+Function  
  ----- ------------  ---------------      ----- ------------  ---------------
   296     -0.274296  25 O  s               293      0.265478  25 O  px        
   295     -0.181008  25 O  pz              294     -0.170519  25 O  py        
   279      0.164880  24 C  py              278     -0.154640  24 C  px        
   292     -0.150844  25 O  s               297      0.144051  25 O  px        
   109      0.119773   8 N  py               94     -0.116740   7 C  py        
 
 Vector   54  Occ=2.000000D+00  E=-4.424180D-01
              MO Center=  3.3D-01,  1.9D+00,  7.3D-02, r^2= 1.3D+01
   Bfn.  Coefficient  Atom+Function         Bfn.  Coefficient  Atom+Function  
  ----- ------------  ---------------      ----- ------------  ---------------
    80      0.217566   6 N  pz                5     -0.194875   1 C  pz        
    65      0.167754   5 C  pz              110      0.136877   8 N  pz        
    20     -0.132617   2 O  pz               84      0.132410   6 N  pz        
    94      0.122359   7 C  py              125      0.112531   9 N  pz        
   293     -0.111414  25 O  px               50      0.110301   4 C  pz        
 
 Vector   55  Occ=2.000000D+00  E=-4.299724D-01
              MO Center=  6.3D-01, -3.8D-01, -6.3D-01, r^2= 2.2D+01
   Bfn.  Coefficient  Atom+Function         Bfn.  Coefficient  Atom+Function  
  ----- ------------  ---------------      ----- ------------  ---------------
    94      0.214169   7 C  py              220      0.197318  20 C  pz        
   201      0.147453  17 H  s               109     -0.143021   8 N  py        
    79     -0.137486   6 N  py               64      0.135490   5 C  py        
   202      0.136062  17 H  s               340      0.134298  28 O  pz        
   295     -0.132485  25 O  pz              351     -0.128842  29 H  s         
 
 Vector   56  Occ=2.000000D+00  E=-4.280980D-01
              MO Center=  1.1D+00, -2.8D+00, -6.4D-01, r^2= 1.1D+01
   Bfn.  Coefficient  Atom+Function         Bfn.  Coefficient  Atom+Function  
  ----- ------------  ---------------      ----- ------------  ---------------
   338      0.270698  28 O  px              218      0.193295  20 C  px        
   341      0.173632  28 O  s               220      0.172740  20 C  pz        
   361      0.160397  31 H  s               342      0.152787  28 O  px        
   362      0.136163  31 H  s               325      0.128605  27 C  pz        
   324     -0.110809  27 C  py               94     -0.108596   7 C  py        
 
 Vector   57  Occ=2.000000D+00  E=-4.252996D-01
              MO Center=  3.5D-01, -4.6D-01, -5.9D-01, r^2= 1.8D+01
   Bfn.  Coefficient  Atom+Function         Bfn.  Coefficient  Atom+Function  
  ----- ------------  ---------------      ----- ------------  ---------------
   338      0.188383  28 O  px              220     -0.166653  20 C  pz        
    94      0.158079   7 C  py              341      0.156670  28 O  s         
    79     -0.152197   6 N  py              323     -0.151007  27 C  px        
   169     -0.138706  12 N  py               64      0.133172   5 C  py        
   340     -0.130816  28 O  pz              124     -0.125614   9 N  py        
 
 Vector   58  Occ=2.000000D+00  E=-4.084045D-01
              MO Center=  1.2D+00, -1.3D+00,  1.3D-01, r^2= 1.4D+01
   Bfn.  Coefficient  Atom+Function         Bfn.  Coefficient  Atom+Function  
  ----- ------------  ---------------      ----- ------------  ---------------
     3      0.217151   1 C  px              218      0.208653  20 C  px        
   233     -0.168418  21 C  px               19      0.162336   2 O  py        
   181      0.152246  13 H  s                34     -0.144013   3 C  py        
    49      0.138275   4 C  py              182      0.134991  13 H  s         
   234      0.134145  21 C  py              235      0.120792  21 C  pz        
 
 Vector   59  Occ=2.000000D+00  E=-4.068655D-01
              MO Center=  1.1D+00, -1.3D+00,  1.0D-01, r^2= 1.4D+01
   Bfn.  Coefficient  Atom+Function         Bfn.  Coefficient  Atom+Function  
  ----- ------------  ---------------      ----- ------------  ---------------
     3      0.219130   1 C  px              218     -0.194345  20 C  px        
   233      0.172594  21 C  px               19      0.165176   2 O  py        
    49      0.151863   4 C  py               34     -0.149426   3 C  py        
   181      0.145876  13 H  s               220      0.134894  20 C  pz        
   234     -0.135274  21 C  py              182      0.129192  13 H  s         
 
 Vector   60  Occ=2.000000D+00  E=-3.980289D-01
              MO Center=  3.0D-01, -1.3D+00, -3.1D-01, r^2= 1.2D+01
   Bfn.  Coefficient  Atom+Function         Bfn.  Coefficient  Atom+Function  
  ----- ------------  ---------------      ----- ------------  ---------------
   340      0.238124  28 O  pz              325      0.197460  27 C  pz        
   220     -0.156656  20 C  pz              265     -0.152927  23 N  pz        
   310      0.151139  26 N  pz              344      0.146087  28 O  pz        
   323      0.143389  27 C  px              140      0.134885  10 C  pz        
    80     -0.131384   6 N  pz              155      0.128663  11 N  pz        
 
 Vector   61  Occ=2.000000D+00  E=-3.945588D-01
              MO Center= -5.6D-02,  4.0D-01, -2.1D-01, r^2= 1.2D+01
   Bfn.  Coefficient  Atom+Function         Bfn.  Coefficient  Atom+Function  
  ----- ------------  ---------------      ----- ------------  ---------------
   140      0.226075  10 C  pz              325     -0.171758  27 C  pz        
   155      0.167608  11 N  pz               80     -0.161385   6 N  pz        
   340     -0.145194  28 O  pz               95     -0.127648   7 C  pz        
   170      0.127665  12 N  pz              338     -0.122474  28 O  px        
   144      0.117077  10 C  pz               84     -0.113770   6 N  pz        
 
 Vector   62  Occ=2.000000D+00  E=-3.910889D-01
              MO Center=  1.1D+00, -4.5D+00, -9.6D-01, r^2= 4.4D+00
   Bfn.  Coefficient  Atom+Function         Bfn.  Coefficient  Atom+Function  
  ----- ------------  ---------------      ----- ------------  ---------------
   219      0.318518  20 C  py              357     -0.243135  30 H  s         
   356     -0.239070  30 H  s               324      0.225785  27 C  py        
   338     -0.182639  28 O  px              234     -0.168537  21 C  py        
   218      0.159999  20 C  px              248      0.114085  22 C  px        
   351      0.111906  29 H  s               361      0.110977  31 H  s         
 
 Vector   63  Occ=2.000000D+00  E=-3.612991D-01
              MO Center= -8.3D-01, -3.3D+00,  3.6D-01, r^2= 5.9D+00
   Bfn.  Coefficient  Atom+Function         Bfn.  Coefficient  Atom+Function  
  ----- ------------  ---------------      ----- ------------  ---------------
   265      0.258888  23 N  pz              295     -0.253997  25 O  pz        
   250      0.236345  22 C  pz              269      0.191210  23 N  pz        
   299     -0.170180  25 O  pz              280     -0.153352  24 C  pz        
   254      0.145305  22 C  pz              263      0.142340  23 N  px        
   293     -0.142833  25 O  px              248      0.140281  22 C  px        
 
 Vector   64  Occ=2.000000D+00  E=-3.553024D-01
              MO Center=  6.3D-01,  1.1D+00,  5.1D-01, r^2= 6.9D+00
   Bfn.  Coefficient  Atom+Function         Bfn.  Coefficient  Atom+Function  
  ----- ------------  ---------------      ----- ------------  ---------------
    35     -0.238872   3 C  pz                5      0.223561   1 C  pz        
    20     -0.220456   2 O  pz              125      0.155290   9 N  pz        
    24     -0.151533   2 O  pz              186     -0.148845  14 H  s         
   140      0.140353  10 C  pz              191      0.134326  15 H  s         
    39     -0.125420   3 C  pz              192      0.125950  15 H  s         
 
 Vector   65  Occ=2.000000D+00  E=-3.414538D-01
              MO Center=  1.7D+00,  1.1D+00,  9.6D-01, r^2= 3.7D+00
   Bfn.  Coefficient  Atom+Function         Bfn.  Coefficient  Atom+Function  
  ----- ------------  ---------------      ----- ------------  ---------------
    18      0.354241   2 O  px               19      0.300565   2 O  py        
    22      0.250427   2 O  px              156      0.236540  11 N  s         
    21      0.194536   2 O  s                23      0.188526   2 O  py        
     3     -0.183375   1 C  px                4     -0.174138   1 C  py        
   181     -0.144670  13 H  s               192      0.128225  15 H  s         
 
 Vector   66  Occ=2.000000D+00  E=-3.210153D-01
              MO Center= -3.5D-01,  1.9D+00,  8.9D-02, r^2= 6.1D+00
   Bfn.  Coefficient  Atom+Function         Bfn.  Coefficient  Atom+Function  
  ----- ------------  ---------------      ----- ------------  ---------------
   154      0.277939  11 N  py              123      0.272251   9 N  px        
   126     -0.267536   9 N  s                51     -0.234133   4 C  s         
   111      0.226114   8 N  s               156     -0.214432  11 N  s         
   171      0.179836  12 N  s               158      0.176731  11 N  py        
   127      0.169803   9 N  px              108      0.141114   8 N  px        
 
 Vector   67  Occ=2.000000D+00  E=-2.991822D-01
              MO Center= -1.3D+00, -1.0D+00,  6.7D-01, r^2= 9.4D+00
   Bfn.  Coefficient  Atom+Function         Bfn.  Coefficient  Atom+Function  
  ----- ------------  ---------------      ----- ------------  ---------------
   294      0.422106  25 O  py              311     -0.293242  26 N  s         
   298      0.276703  25 O  py              293      0.252814  25 O  px        
   266      0.196763  23 N  s               297      0.182038  25 O  px        
   339      0.178320  28 O  py              264      0.139177  23 N  py        
   108      0.119320   8 N  px              343      0.117015  28 O  py        
 
 Vector   68  Occ=2.000000D+00  E=-2.955875D-01
              MO Center= -1.5D-01,  2.4D+00, -2.0D-02, r^2= 9.4D+00
   Bfn.  Coefficient  Atom+Function         Bfn.  Coefficient  Atom+Function  
  ----- ------------  ---------------      ----- ------------  ---------------
   110      0.285859   8 N  pz               65     -0.196689   5 C  pz        
   114      0.182550   8 N  pz               95      0.171327   7 C  pz        
   294      0.170968  25 O  py              125     -0.162659   9 N  pz        
    20     -0.160723   2 O  pz              170      0.155901  12 N  pz        
   169      0.133605  12 N  py               80     -0.123050   6 N  pz        
 
 Vector   69  Occ=2.000000D+00  E=-2.860156D-01
              MO Center= -2.4D-01, -1.9D+00,  1.7D-01, r^2= 4.4D+00
   Bfn.  Coefficient  Atom+Function         Bfn.  Coefficient  Atom+Function  
  ----- ------------  ---------------      ----- ------------  ---------------
   310      0.375943  26 N  pz              314      0.308460  26 N  pz        
   340     -0.300481  28 O  pz              295     -0.279878  25 O  pz        
   344     -0.215784  28 O  pz              308      0.213029  26 N  px        
   299     -0.208813  25 O  pz              312      0.174755  26 N  px        
   338     -0.155188  28 O  px              293     -0.151828  25 O  px        
 
 Vector   70  Occ=2.000000D+00  E=-2.804566D-01
              MO Center=  6.2D-01,  2.7D+00,  1.1D-01, r^2= 6.7D+00
   Bfn.  Coefficient  Atom+Function         Bfn.  Coefficient  Atom+Function  
  ----- ------------  ---------------      ----- ------------  ---------------
   108      0.365288   8 N  px              154     -0.325267  11 N  py        
   112      0.241196   8 N  px              158     -0.224671  11 N  py        
   111      0.204840   8 N  s                66      0.181218   5 C  s         
    81      0.147029   6 N  s                49     -0.143307   4 C  py        
   107      0.124201   8 N  s               156      0.121938  11 N  s         
 
 Vector   71  Occ=2.000000D+00  E=-2.743197D-01
              MO Center= -1.3D-01,  1.9D+00, -1.1D-01, r^2= 9.0D+00
   Bfn.  Coefficient  Atom+Function         Bfn.  Coefficient  Atom+Function  
  ----- ------------  ---------------      ----- ------------  ---------------
   170      0.255228  12 N  pz               80      0.245277   6 N  pz        
    20      0.241305   2 O  pz              174      0.209122  12 N  pz        
    84      0.204693   6 N  pz               50     -0.202547   4 C  pz        
    24      0.183440   2 O  pz              339      0.152862  28 O  py        
   125     -0.130389   9 N  pz               54     -0.126631   4 C  pz        
 
 Vector   72  Occ=2.000000D+00  E=-2.661185D-01
              MO Center=  8.6D-01, -1.0D+00, -4.9D-01, r^2= 9.6D+00
   Bfn.  Coefficient  Atom+Function         Bfn.  Coefficient  Atom+Function  
  ----- ------------  ---------------      ----- ------------  ---------------
   339      0.445044  28 O  py              343      0.302430  28 O  py        
   236      0.225904  21 C  s               338     -0.174011  28 O  px        
    80     -0.166413   6 N  pz              311     -0.161991  26 N  s         
   340      0.153533  28 O  pz              234      0.152414  21 C  py        
    84     -0.135300   6 N  pz              238      0.130777  21 C  py        
 
 Vector   73  Occ=2.000000D+00  E=-2.551501D-01
              MO Center=  9.6D-02,  1.5D+00,  1.1D-01, r^2= 6.6D+00
   Bfn.  Coefficient  Atom+Function         Bfn.  Coefficient  Atom+Function  
  ----- ------------  ---------------      ----- ------------  ---------------
   155      0.349145  11 N  pz              159      0.272794  11 N  pz        
    20     -0.238407   2 O  pz               80      0.194014   6 N  pz        
    24     -0.185921   2 O  pz              170     -0.170990  12 N  pz        
   339      0.160331  28 O  py               84      0.156079   6 N  pz        
   125     -0.151020   9 N  pz              174     -0.148135  12 N  pz        
 
 Vector   74  Occ=2.000000D+00  E=-2.456355D-01
              MO Center= -2.2D-01, -1.3D+00, -1.1D-01, r^2= 1.5D+01
   Bfn.  Coefficient  Atom+Function         Bfn.  Coefficient  Atom+Function  
  ----- ------------  ---------------      ----- ------------  ---------------
   235      0.240990  21 C  pz              265     -0.225757  23 N  pz        
   269     -0.205664  23 N  pz              123      0.202089   9 N  px        
   239      0.187129  21 C  pz              108     -0.176699   8 N  px        
   250      0.162411  22 C  pz              127      0.160736   9 N  px        
   340     -0.157531  28 O  pz              295      0.150861  25 O  pz        
 
 Vector   75  Occ=2.000000D+00  E=-2.446423D-01
              MO Center= -2.4D-01,  4.6D-01, -1.4D-01, r^2= 1.5D+01
   Bfn.  Coefficient  Atom+Function         Bfn.  Coefficient  Atom+Function  
  ----- ------------  ---------------      ----- ------------  ---------------
   123      0.272393   9 N  px              108     -0.227567   8 N  px        
   127      0.216914   9 N  px              235     -0.184627  21 C  pz        
   154     -0.178762  11 N  py              265      0.172186  23 N  pz        
   112     -0.165710   8 N  px              269      0.155632  23 N  pz        
    48      0.146945   4 C  px              111     -0.140123   8 N  s         
 
 Vector   76  Occ=2.000000D+00  E=-1.953503D-01
              MO Center= -4.1D-01,  2.7D+00, -1.9D-01, r^2= 5.8D+00
   Bfn.  Coefficient  Atom+Function         Bfn.  Coefficient  Atom+Function  
  ----- ------------  ---------------      ----- ------------  ---------------
   170      0.269469  12 N  pz               50      0.258621   4 C  pz        
   125     -0.239518   9 N  pz              174      0.235466  12 N  pz        
    95     -0.225563   7 C  pz               54      0.197262   4 C  pz        
   129     -0.190205   9 N  pz               99     -0.176894   7 C  pz        
    65      0.146909   5 C  pz              140     -0.143999  10 C  pz        
 
 Vector   77  Occ=0.000000D+00  E=-4.063301D-02
              MO Center=  5.1D-02, -3.7D+00, -2.0D-01, r^2= 3.5D+00
   Bfn.  Coefficient  Atom+Function         Bfn.  Coefficient  Atom+Function  
  ----- ------------  ---------------      ----- ------------  ---------------
   254      0.432592  22 C  pz              250      0.351825  22 C  pz        
   239     -0.293692  21 C  pz              325     -0.268074  27 C  pz        
   252      0.251513  22 C  px              329     -0.226533  27 C  pz        
   340      0.224047  28 O  pz              344      0.222179  28 O  pz        
   235     -0.203578  21 C  pz              248      0.204476  22 C  px        
 
 Vector   78  Occ=0.000000D+00  E=-6.070341D-03
              MO Center=  3.8D-01,  2.8D+00,  9.3D-03, r^2= 5.0D+00
   Bfn.  Coefficient  Atom+Function         Bfn.  Coefficient  Atom+Function  
  ----- ------------  ---------------      ----- ------------  ---------------
    35      0.385287   3 C  pz               39      0.375619   3 C  pz        
    99      0.295750   7 C  pz               95      0.264866   7 C  pz        
   129      0.245908   9 N  pz              114     -0.218594   8 N  pz        
   125      0.217841   9 N  pz              159     -0.201622  11 N  pz        
   110     -0.190656   8 N  pz               20     -0.187336   2 O  pz        
 
 Vector   79  Occ=0.000000D+00  E= 5.827025D-03
              MO Center= -7.9D-01, -2.7D+00,  3.9D-01, r^2= 4.0D+00
   Bfn.  Coefficient  Atom+Function         Bfn.  Coefficient  Atom+Function  
  ----- ------------  ---------------      ----- ------------  ---------------
   280      0.434530  24 C  pz              284      0.411916  24 C  pz        
   299     -0.292980  25 O  pz              295     -0.272788  25 O  pz        
   325     -0.239625  27 C  pz              329     -0.238889  27 C  pz        
   239      0.235436  21 C  pz              278      0.235573  24 C  px        
   282      0.227437  24 C  px              269     -0.193022  23 N  pz        
 
 Vector   80  Occ=0.000000D+00  E= 2.453308D-02
              MO Center= -5.7D-01,  2.6D+00, -2.2D-01, r^2= 4.6D+00
   Bfn.  Coefficient  Atom+Function         Bfn.  Coefficient  Atom+Function  
  ----- ------------  ---------------      ----- ------------  ---------------
    69      0.384366   5 C  pz              140     -0.355436  10 C  pz        
    65      0.344096   5 C  pz              144     -0.336120  10 C  pz        
    84     -0.294371   6 N  pz              159      0.293372  11 N  pz        
    54     -0.247722   4 C  pz              155      0.237988  11 N  pz        
    80     -0.233369   6 N  pz               99      0.195672   7 C  pz        
 
 Vector   81  Occ=0.000000D+00  E= 5.579454D-02
              MO Center= -1.9D+00, -4.6D+00,  7.4D-01, r^2= 5.1D+00
   Bfn.  Coefficient  Atom+Function         Bfn.  Coefficient  Atom+Function  
  ----- ------------  ---------------      ----- ------------  ---------------
   372      1.387613  33 H  s               266     -1.059097  23 N  s         
   367      0.908007  32 H  s               251     -0.669007  22 C  s         
   253      0.462640  22 C  py              267      0.430779  23 N  px        
   268      0.241978  23 N  py              223      0.214743  20 C  py        
   249      0.204465  22 C  py              269     -0.203284  23 N  pz        
 
 Vector   82  Occ=0.000000D+00  E= 5.765974D-02
              MO Center=  2.4D-01,  3.6D+00, -2.9D-01, r^2= 6.1D+00
   Bfn.  Coefficient  Atom+Function         Bfn.  Coefficient  Atom+Function  
  ----- ------------  ---------------      ----- ------------  ---------------
    99      0.426659   7 C  pz              114     -0.414247   8 N  pz        
   110     -0.332916   8 N  pz              144      0.300200  10 C  pz        
    95      0.291349   7 C  pz              129     -0.271033   9 N  pz        
    84     -0.262599   6 N  pz              140      0.238832  10 C  pz        
    54      0.224694   4 C  pz              125     -0.209593   9 N  pz        
 
 Vector   83  Occ=0.000000D+00  E= 8.614776D-02
              MO Center= -1.1D+00,  5.4D+00, -1.3D+00, r^2= 3.1D+00
   Bfn.  Coefficient  Atom+Function         Bfn.  Coefficient  Atom+Function  
  ----- ------------  ---------------      ----- ------------  ---------------
   197      1.718734  16 H  s                81     -1.176376   6 N  s         
    82      0.533589   6 N  px               83     -0.427698   6 N  py        
   202      0.366865  17 H  s                84      0.301623   6 N  pz        
    96     -0.279332   7 C  s               126     -0.207762   9 N  s         
    21     -0.203721   2 O  s                78      0.196123   6 N  px        
 
 Vector   84  Occ=0.000000D+00  E= 1.019023D-01
              MO Center=  1.8D-01, -5.3D+00, -6.0D-01, r^2= 7.7D+00
   Bfn.  Coefficient  Atom+Function         Bfn.  Coefficient  Atom+Function  
  ----- ------------  ---------------      ----- ------------  ---------------
   221      1.729724  20 C  s               367     -1.129923  32 H  s         
   357     -1.089971  30 H  s               352     -0.687938  29 H  s         
   251      0.663976  22 C  s               266     -0.649850  23 N  s         
   253     -0.627125  22 C  py              372      0.568674  33 H  s         
   362     -0.540814  31 H  s               252     -0.445015  22 C  px        
 
 Vector   85  Occ=0.000000D+00  E= 1.093746D-01
              MO Center=  1.8D-01, -3.3D+00, -1.6D-01, r^2= 6.4D+00
   Bfn.  Coefficient  Atom+Function         Bfn.  Coefficient  Atom+Function  
  ----- ------------  ---------------      ----- ------------  ---------------
   362      0.625766  31 H  s                 6      0.444231   1 C  s         
   352     -0.444672  29 H  s               329      0.382464  27 C  pz        
   224     -0.327345  20 C  pz              284      0.311980  24 C  pz        
   239     -0.309365  21 C  pz              325      0.304177  27 C  pz        
   171     -0.275135  12 N  s               254      0.272723  22 C  pz        
 
 Vector   86  Occ=0.000000D+00  E= 1.196382D-01
              MO Center= -1.5D+00, -7.1D-02, -8.2D-02, r^2= 1.3D+01
   Bfn.  Coefficient  Atom+Function         Bfn.  Coefficient  Atom+Function  
  ----- ------------  ---------------      ----- ------------  ---------------
   212      1.260033  19 H  s               171     -1.096810  12 N  s         
     6     -0.818591   1 C  s               221     -0.795669  20 C  s         
   352      0.514311  29 H  s               156     -0.451242  11 N  s         
   172      0.452220  12 N  px              192      0.443194  15 H  s         
   362      0.436837  31 H  s               311     -0.423859  26 N  s         
 
 Vector   87  Occ=0.000000D+00  E= 1.284124D-01
              MO Center= -1.9D-02, -2.1D+00,  5.9D-02, r^2= 1.7D+01
   Bfn.  Coefficient  Atom+Function         Bfn.  Coefficient  Atom+Function  
  ----- ------------  ---------------      ----- ------------  ---------------
   221      1.028500  20 C  s                 6      0.861782   1 C  s         
   212      0.857080  19 H  s               362     -0.845427  31 H  s         
   367      0.790081  32 H  s               171     -0.689435  12 N  s         
   182     -0.572638  13 H  s               352     -0.526538  29 H  s         
   372     -0.494232  33 H  s               192     -0.475657  15 H  s         
 
 Vector   88  Occ=0.000000D+00  E= 1.306826D-01
              MO Center=  1.5D+00,  7.8D-01,  8.3D-01, r^2= 8.4D+00
   Bfn.  Coefficient  Atom+Function         Bfn.  Coefficient  Atom+Function  
  ----- ------------  ---------------      ----- ------------  ---------------
    21      1.175338   2 O  s                 8     -0.917075   1 C  py        
    36     -0.546064   3 C  s               111      0.454246   8 N  s         
   202      0.440743  17 H  s                23     -0.409601   2 O  py        
    96     -0.387286   7 C  s                 9      0.384112   1 C  pz        
   212     -0.358963  19 H  s               221     -0.340259  20 C  s         
 
 Vector   89  Occ=0.000000D+00  E= 1.363102D-01
              MO Center=  8.4D-01, -1.5D+00,  5.7D-01, r^2= 1.7D+01
   Bfn.  Coefficient  Atom+Function         Bfn.  Coefficient  Atom+Function  
  ----- ------------  ---------------      ----- ------------  ---------------
     6      1.435491   1 C  s               221     -1.078476  20 C  s         
   182     -0.863235  13 H  s               192     -0.803578  15 H  s         
   367     -0.714384  32 H  s               352      0.653554  29 H  s         
   372      0.576073  33 H  s               251      0.510612  22 C  s         
   362      0.473370  31 H  s               236      0.458313  21 C  s         
 
 Vector   90  Occ=0.000000D+00  E= 1.416536D-01
              MO Center=  1.1D+00,  5.6D+00, -7.3D-01, r^2= 7.4D+00
   Bfn.  Coefficient  Atom+Function         Bfn.  Coefficient  Atom+Function  
  ----- ------------  ---------------      ----- ------------  ---------------
   202      1.943029  17 H  s                96     -1.563646   7 C  s         
    98     -0.896210   7 C  py               81      0.537889   6 N  s         
   197     -0.399630  16 H  s               126      0.390841   9 N  s         
     6      0.370885   1 C  s                21     -0.322009   2 O  s         
    99      0.273072   7 C  pz               83      0.271648   6 N  py        
 
 Vector   91  Occ=0.000000D+00  E= 1.533738D-01
              MO Center=  9.1D-01, -4.7D+00, -7.3D-01, r^2= 8.1D+00
   Bfn.  Coefficient  Atom+Function         Bfn.  Coefficient  Atom+Function  
  ----- ------------  ---------------      ----- ------------  ---------------
   357      1.387165  30 H  s               251      0.956151  22 C  s         
   367     -0.715659  32 H  s               223      0.677061  20 C  py        
   352     -0.655892  29 H  s                 6     -0.633705   1 C  s         
   222      0.625899  20 C  px              362     -0.548469  31 H  s         
   221     -0.384136  20 C  s               311      0.378538  26 N  s         
 
 Vector   92  Occ=0.000000D+00  E= 1.676966D-01
              MO Center=  1.9D+00,  5.7D-02,  1.8D+00, r^2= 4.3D+00
   Bfn.  Coefficient  Atom+Function         Bfn.  Coefficient  Atom+Function  
  ----- ------------  ---------------      ----- ------------  ---------------
   192      1.505063  15 H  s               182     -1.359402  13 H  s         
     7      1.250142   1 C  px               36      0.417379   3 C  s         
     3      0.381698   1 C  px                6     -0.311492   1 C  s         
   326      0.276670  27 C  s               296     -0.273014  25 O  s         
   377     -0.265760  34 H  s               283      0.227756  24 C  py        
 
 Vector   93  Occ=0.000000D+00  E= 1.759095D-01
              MO Center=  4.1D-01,  7.6D-01,  1.7D-01, r^2= 1.2D+01
   Bfn.  Coefficient  Atom+Function         Bfn.  Coefficient  Atom+Function  
  ----- ------------  ---------------      ----- ------------  ---------------
     6      0.931720   1 C  s               377      0.758093  34 H  s         
   357      0.562549  30 H  s               182     -0.532990  13 H  s         
   311     -0.477046  26 N  s                54     -0.407382   4 C  pz        
[...]
  ----- ------------  ---------------      ----- ------------  ---------------
   126      3.093571   9 N  s                21     -2.431340   2 O  s         
    67      1.955557   5 C  px              111      1.913274   8 N  s         
   156      1.804048  11 N  s                92     -1.741362   7 C  s         
   103      1.526508   7 C  dyy              51     -1.399902   4 C  s         
    37      1.348291   3 C  px              100      1.271615   7 C  dxx       
 
 Vector  371  Occ=0.000000D+00  E= 4.390838D+00
              MO Center= -2.7D-01,  3.1D+00, -3.0D-01, r^2= 5.9D+00
   Bfn.  Coefficient  Atom+Function         Bfn.  Coefficient  Atom+Function  
  ----- ------------  ---------------      ----- ------------  ---------------
    81      6.666145   6 N  s                68     -3.865139   5 C  py        
   171     -3.628510  12 N  s               142     -2.592574  10 C  px        
   126     -2.480381   9 N  s               156      2.348533  11 N  s         
    96     -2.248880   7 C  s                83     -2.028171   6 N  py        
   111      2.025648   8 N  s                21      2.001211   2 O  s         
 
 Vector  372  Occ=0.000000D+00  E= 4.444301D+00
              MO Center=  4.3D-01, -4.5D+00, -5.4D-01, r^2= 4.4D+00
   Bfn.  Coefficient  Atom+Function         Bfn.  Coefficient  Atom+Function  
  ----- ------------  ---------------      ----- ------------  ---------------
   311      2.465387  26 N  s               217     -1.930959  20 C  s         
   341     -1.581059  28 O  s               230      1.534387  20 C  dzz       
   247      1.516661  22 C  s               225      1.465669  20 C  dxx       
   228      1.455584  20 C  dyy             221     -1.443268  20 C  s         
   327      1.418937  27 C  px              258     -1.207851  22 C  dyy       
 
 Vector  373  Occ=0.000000D+00  E= 4.457424D+00
              MO Center= -6.4D-01,  2.6D+00, -2.5D-01, r^2= 5.3D+00
   Bfn.  Coefficient  Atom+Function         Bfn.  Coefficient  Atom+Function  
  ----- ------------  ---------------      ----- ------------  ---------------
   126      8.590153   9 N  s                68      3.433931   5 C  py        
    67      3.091800   5 C  px              111      2.742649   8 N  s         
    53     -2.634087   4 C  py               81     -2.467415   6 N  s         
    36     -2.407052   3 C  s               127      2.239849   9 N  px        
   141     -1.958066  10 C  s               143     -1.849912  10 C  py        
 
 Vector  374  Occ=0.000000D+00  E= 4.481807D+00
              MO Center= -7.3D-01,  2.0D+00, -1.1D-01, r^2= 5.6D+00
   Bfn.  Coefficient  Atom+Function         Bfn.  Coefficient  Atom+Function  
  ----- ------------  ---------------      ----- ------------  ---------------
   126      5.505481   9 N  s                68      3.151186   5 C  py        
    53     -3.121152   4 C  py              111      2.985878   8 N  s         
    36     -2.158241   3 C  s                66     -2.135657   5 C  s         
    52     -1.976320   4 C  px               51      1.747836   4 C  s         
   137      1.673244  10 C  s               341     -1.519515  28 O  s         
 
 Vector  375  Occ=0.000000D+00  E= 4.515558D+00
              MO Center=  1.5D+00,  1.8D-01,  7.8D-01, r^2= 8.4D+00
   Bfn.  Coefficient  Atom+Function         Bfn.  Coefficient  Atom+Function  
  ----- ------------  ---------------      ----- ------------  ---------------
   126      2.360545   9 N  s               311     -2.288031  26 N  s         
     6     -2.204313   1 C  s                 2     -2.096583   1 C  s         
    53     -1.883868   4 C  py               21      1.812826   2 O  s         
   341      1.813457  28 O  s               156     -1.699542  11 N  s         
    10      1.680863   1 C  dxx              15      1.637386   1 C  dzz       
 
 Vector  376  Occ=0.000000D+00  E= 4.552221D+00
              MO Center=  1.3D-01, -2.9D+00,  6.9D-02, r^2= 7.8D+00
   Bfn.  Coefficient  Atom+Function         Bfn.  Coefficient  Atom+Function  
  ----- ------------  ---------------      ----- ------------  ---------------
   296      4.672993  25 O  s               311     -4.361920  26 N  s         
   341      3.955331  28 O  s               282      2.467946  24 C  px        
   327     -2.401080  27 C  px              221     -2.018556  20 C  s         
   266     -1.966245  23 N  s               313      1.727435  26 N  py        
   284     -1.524307  24 C  pz              283     -1.382201  24 C  py        
 
 Vector  377  Occ=0.000000D+00  E= 4.669946D+00
              MO Center= -8.7D-02,  1.2D+00, -7.6D-02, r^2= 1.2D+01
   Bfn.  Coefficient  Atom+Function         Bfn.  Coefficient  Atom+Function  
  ----- ------------  ---------------      ----- ------------  ---------------
    21      4.111251   2 O  s               296     -3.581948  25 O  s         
   341      3.559249  28 O  s               156     -3.530062  11 N  s         
   111     -3.157641   8 N  s                37     -2.942793   3 C  px        
    53      1.738985   4 C  py              327     -1.604792  27 C  px        
    52      1.490284   4 C  px               62     -1.423811   5 C  s         
 
 Vector  378  Occ=0.000000D+00  E= 4.712969D+00
              MO Center= -2.8D-01, -8.5D-01,  2.1D-01, r^2= 1.2D+01
   Bfn.  Coefficient  Atom+Function         Bfn.  Coefficient  Atom+Function  
  ----- ------------  ---------------      ----- ------------  ---------------
   296      5.301253  25 O  s               341     -4.167775  28 O  s         
    21      3.510089   2 O  s               156     -2.826113  11 N  s         
    37     -2.412651   3 C  px              111     -2.276441   8 N  s         
   266     -2.270867  23 N  s               283     -2.139635  24 C  py        
   282      1.998594  24 C  px              327      1.649361  27 C  px        
 
 Vector  379  Occ=0.000000D+00  E= 4.752220D+00
              MO Center=  3.4D-01, -3.0D+00, -2.6D-01, r^2= 4.9D+00
   Bfn.  Coefficient  Atom+Function         Bfn.  Coefficient  Atom+Function  
  ----- ------------  ---------------      ----- ------------  ---------------
   341      4.625691  28 O  s               311     -3.990712  26 N  s         
   236     -3.607462  21 C  s               327     -3.029212  27 C  px        
   251      2.628448  22 C  s               266     -2.065997  23 N  s         
    21     -1.958848   2 O  s               326      1.670013  27 C  s         
   237      1.648972  21 C  px              328     -1.539807  27 C  py        
 
 Vector  380  Occ=0.000000D+00  E= 4.815183D+00
              MO Center=  6.0D-01,  2.2D+00,  2.0D-01, r^2= 4.2D+00
   Bfn.  Coefficient  Atom+Function         Bfn.  Coefficient  Atom+Function  
  ----- ------------  ---------------      ----- ------------  ---------------
    21      5.098288   2 O  s               156     -3.945527  11 N  s         
    37     -3.908281   3 C  px               51     -3.164209   4 C  s         
    52      2.740399   4 C  px              111     -2.713913   8 N  s         
    81     -2.359451   6 N  s                66      2.328648   5 C  s         
    36      2.150081   3 C  s               126      2.141740   9 N  s         
 

 center of mass
 --------------
 x =  -0.01505591 y =   0.03523553 z =   0.05503481

 moments of inertia (a.u.)
 ------------------
       11377.779168227396        -432.440830235718         160.616505815106
        -432.440830235718        2810.583389635868         253.839017861195
         160.616505815106         253.839017861195       12985.134472725373
 
     Multipole analysis of the density
     ---------------------------------
 
     L   x y z        total         alpha         beta         nuclear
     -   - - -        -----         -----         ----         -------
     0   0 0 0     -0.000000    -76.000000    -76.000000    152.000000
 
     1   1 0 0     -1.347832     -1.007145     -1.007145      0.666458
     1   0 1 0     -1.624530      3.584311      3.584311     -8.793152
     1   0 0 1     -0.012694     -3.962856     -3.962856      7.913018
 
     2   2 0 0    -91.433873   -645.197863   -645.197863   1198.961853
     2   1 1 0     -1.756061    -96.162029    -96.162029    190.567996
     2   1 0 1      2.908063     41.084831     41.084831    -79.261600
     2   0 2 0    -52.948457  -2904.316092  -2904.316092   5755.683728
     2   0 1 1     -7.565168     56.116800     56.116800   -119.798768
     2   0 0 2    -89.075573   -212.987713   -212.987713    336.899853
 
 
            General Information
            -------------------
          SCF calculation type: DFT
          Wavefunction type:  closed shell.
          No. of atoms     :    34
          No. of electrons :   152
           Alpha electrons :    76
            Beta electrons :    76
          Charge           :     0
          Spin multiplicity:     1
          Use of symmetry is: off; symmetry adaption is: off
          Maximum number of iterations: ***
          This is a Direct SCF calculation.
          AO basis - number of functions:   380
                     number of shells:   165
          Convergence on energy requested:  1.00D-06
          Convergence on density requested:  1.00D-05
          Convergence on gradient requested:  5.00D-04
 
              XC Information
              --------------
                         B3LYP Method XC Potential
                     Hartree-Fock (Exact) Exchange  0.200          
                        Slater Exchange Functional  0.800 local    
                    Becke 1988 Exchange Functional  0.720 non-local
              Lee-Yang-Parr Correlation Functional  0.810          
                  VWN I RPA Correlation Functional  0.190 local    
 
             Grid Information
             ----------------
          Grid used for XC integration:  fine      
          Radial quadrature: Mura-Knowles        
          Angular quadrature: Lebedev. 
          Tag              B.-S. Rad. Rad. Pts. Rad. Cut. Ang. Pts.
          ---              ---------- --------- --------- ---------
          C                   0.70       70          15.0       590
          O                   0.60       70          14.0       590
          N                   0.65       70          14.0       590
          H                   0.35       60          14.0       590
          Grid pruning is: on 
          Number of quadrature shells:  2250
          Spatial weights used:  Erf1
 
          Convergence Information
          -----------------------
          Convergence aids based upon iterative change in 
          total energy or number of iterations. 
          Levelshifting, if invoked, occurs when the 
          HOMO/LUMO gap drops below (HL_TOL):  1.00D-02
          DIIS, if invoked, will attempt to extrapolate 
          using up to (NFOCK): 10 stored Fock matrices.

                    Damping( 0%)  Levelshifting(0.5)       DIIS
                  --------------- ------------------- ---------------
          dE  on:    start            ASAP                start   
          dE off:    2 iters        *** iters           *** iters 

 
      Screening Tolerance Information
      -------------------------------
          Density screening/tol_rho:  1.00D-10
          AO Gaussian exp screening on grid/accAOfunc:  14
          CD Gaussian exp screening on grid/accCDfunc:  20
          XC Gaussian exp screening on grid/accXCfunc:  20
          Schwarz screening/accCoul:  1.00D-08

 
 
                            NWChem DFT Gradient Module
                            --------------------------
 
 
                                      nwchem
 
 

  charge          =   0.00
  wavefunction    = closed shell



                         DFT ENERGY GRADIENTS

    atom               coordinates                        gradient
                 x          y          z           x          y          z
   1 C       4.133273   0.327967   2.712730    0.000004  -0.000023  -0.000020
   2 O       3.843810   2.860466   1.791755    0.000039  -0.000059  -0.000041
   3 C       1.620360   3.576173   0.849737    0.000009  -0.000006   0.000010
   4 C       1.390929   6.074745  -0.037753   -0.000025   0.000012   0.000051
   5 C      -1.011235   6.713970  -0.953480    0.000017  -0.000008  -0.000012
   6 N      -0.785559   9.186859  -1.712191   -0.000078   0.000086  -0.000047
   7 C       1.690584   9.897353  -1.221641   -0.000015   0.000005   0.000034
   8 N       3.049901   8.096939  -0.220233    0.000007  -0.000063  -0.000030
   9 N      -3.061365   5.248981  -1.023417   -0.000009   0.000022   0.000079
  10 C      -2.605025   2.919116  -0.131182    0.000016  -0.000009  -0.000055
  11 N      -0.351258   2.005607   0.757543   -0.000000   0.000052  -0.000001
  12 N      -4.572785   1.259368  -0.158322   -0.000019  -0.000091  -0.000001
  13 H       5.972361   0.307405   3.641932   -0.000043   0.000065   0.000010
  14 H       4.114046  -1.019256   1.148009   -0.000059   0.000079   0.000019
  15 H       2.648566  -0.135677   4.073416    0.000025  -0.000049  -0.000008
  16 H      -2.172545  10.248279  -2.473656    0.000088  -0.000084  -0.000007
  17 H       2.358951  11.779754  -1.655483   -0.000005  -0.000036   0.000007
  18 H      -4.536450  -0.257655   1.021476    0.000063   0.000033  -0.000041
  19 H      -6.270506   2.039150  -0.531155   -0.000016   0.000040   0.000036
  20 C       2.853413  -9.564796  -2.336511   -0.000023   0.000059   0.000008
  21 C       0.900440  -8.002022  -1.002992    0.000061   0.000060  -0.000013
  22 C      -1.207815  -8.958298   0.072574    0.000016   0.000037  -0.000029
  23 N      -2.952446  -7.448135   1.286663    0.000043   0.000019  -0.000025
  24 C      -2.731428  -4.849281   1.488917    0.000004  -0.000072   0.000013
  25 O      -4.354655  -3.569518   2.544021   -0.000039   0.000040   0.000001
  26 N      -0.565321  -3.887210   0.415982    0.000007  -0.000058   0.000036
  27 C       1.326990  -5.264788  -0.840206   -0.000016  -0.000052  -0.000018
  28 O       3.192951  -4.198140  -1.698049   -0.000045  -0.000116   0.000040
  29 H       3.081764  -8.938482  -4.294796    0.000014  -0.000022   0.000019
  30 H       2.341492 -11.566073  -2.337178    0.000029   0.000059  -0.000001
  31 H       4.702853  -9.353750  -1.434085   -0.000048  -0.000028  -0.000017
  32 H      -1.650424 -10.959270   0.048310    0.000025   0.000123   0.000009
  33 H      -4.536518  -8.183503   2.053679    0.000002   0.000015   0.000010
  34 H      -0.335046  -1.954239   0.527405   -0.000029  -0.000030  -0.000014
 
                 ----------------------------------------
                 |  Time  |  1-e(secs)   |  2-e(secs)   |
                 ----------------------------------------
                 |  CPU   |       0.01   |       3.23   |
                 ----------------------------------------
                 |  WALL  |       0.01   |       3.24   |
                 ----------------------------------------

 Task  times  cpu:       39.1s     wall:       39.9s
 
 
                                NWChem Input Module
                                -------------------
 
 
 Summary of allocated global arrays
-----------------------------------
  No active global arrays



                         GA Statistics for process    0
                         ------------------------------

       create   destroy   get      put      acc     scatter   gather  read&inc
calls:  232      232     9.53e+04 2607     1.16e+04    0        0     1369     
number of processes/call 1.40e+01 1.88e+02 1.30e+01 0.00e+00 0.00e+00
bytes total:             5.28e+08 3.44e+07 7.50e+07 0.00e+00 0.00e+00 1.10e+04
bytes remote:            5.04e+08 3.00e+07 7.14e+07 0.00e+00 0.00e+00 0.00e+00
Max memory consumed for GA by this process: 1089408 bytes
 
MA_summarize_allocated_blocks: starting scan ...
MA_summarize_allocated_blocks: scan completed: 0 heap blocks, 0 stack blocks
MA usage statistics:

	allocation statistics:
					      heap	     stack
					      ----	     -----
	current number of blocks	         0	         0
	maximum number of blocks	        23	        53
	current total bytes		         0	         0
	maximum total bytes		    522200	  34128568
	maximum total K-bytes		       523	     34129
	maximum total M-bytes		         1	        35
 
 
                                     CITATION
                                     --------
                Please cite the following reference when publishing
                           results obtained with NWChem:
 
          E. Apr, E. J. Bylaska, W. A. de Jong, N. Govind, K. Kowalski,
       T. P. Straatsma, M. Valiev, H. J. J. van Dam, Y. Alexeev, J. Anchell,
       V. Anisimov, F. W. Aquino, R. Atta-Fynn, J. Autschbach, N. P. Bauman,
     J. C. Becca, D. E. Bernholdt, K. Bhaskaran-Nair, S. Bogatko, P. Borowski,
        J. Boschen, J. Brabec, A. Bruner, E. Caut, Y. Chen, G. N. Chuev,
      C. J. Cramer, J. Daily, M. J. O. Deegan, T. H. Dunning Jr., M. Dupuis,
   K. G. Dyall, G. I. Fann, S. A. Fischer, A. Fonari, H. Frchtl, L. Gagliardi,
      J. Garza, N. Gawande, S. Ghosh, K. Glaesemann, A. W. Gtz, J. Hammond,
       V. Helms, E. D. Hermes, K. Hirao, S. Hirata, M. Jacquelin, L. Jensen,
   B. G. Johnson, H. Jnsson, R. A. Kendall, M. Klemm, R. Kobayashi, V. Konkov,
      S. Krishnamoorthy, M. Krishnan, Z. Lin, R. D. Lins, R. J. Littlefield,
      A. J. Logsdail, K. Lopata, W. Ma, A. V. Marenich, J. Martin del Campo,
   D. Mejia-Rodriguez, J. E. Moore, J. M. Mullin, T. Nakajima, D. R. Nascimento,
    J. A. Nichols, P. J. Nichols, J. Nieplocha, A. Otero-de-la-Roza, B. Palmer,
    A. Panyala, T. Pirojsirikul, B. Peng, R. Peverati, J. Pittner, L. Pollack,
   R. M. Richard, P. Sadayappan, G. C. Schatz, W. A. Shelton, D. W. Silverstein,
   D. M. A. Smith, T. A. Soares, D. Song, M. Swart, H. L. Taylor, G. S. Thomas,
            V. Tipparaju, D. G. Truhlar, K. Tsemekhman, T. Van Voorhis,
     . Vzquez-Mayagoitia, P. Verma, O. Villa, A. Vishnu, K. D. Vogiatzis,
        D. Wang, J. H. Weare, M. J. Williamson, T. L. Windus, K. Woliski,
        A. T. Wong, Q. Wu, C. Yang, Q. Yu, M. Zacharias, Z. Zhang, Y. Zhao,
                                and R. J. Harrison
                        "NWChem: Past, present, and future
                         J. Chem. Phys. 152, 184102 (2020)
                               doi:10.1063/5.0004997
 
                                      AUTHORS
                                      -------
     E. Apra, E. J. Bylaska, N. Govind, K. Kowalski, M. Valiev, W. A. de Jong,
      T. P. Straatsma, H. J. J. van Dam, D. Wang, T. L. Windus, N. P. Bauman,
       A. Panyala, J. Hammond, J. Autschbach, K. Bhaskaran-Nair, J. Brabec,
    K. Lopata, S. A. Fischer, S. Krishnamoorthy, M. Jacquelin, W. Ma, M. Klemm,
       O. Villa, Y. Chen, V. Anisimov, F. Aquino, S. Hirata, M. T. Hackler,
           Eric Hermes, L. Jensen, J. E. Moore, J. C. Becca, V. Konjkov,
            D. Mejia-Rodriguez, T. Risthaus, M. Malagoli, A. Marenich,
   A. Otero-de-la-Roza, J. Mullin, P. Nichols, R. Peverati, J. Pittner, Y. Zhao,
        P.-D. Fan, A. Fonari, M. J. Williamson, R. J. Harrison, J. R. Rehr,
      M. Dupuis, D. Silverstein, D. M. A. Smith, J. Nieplocha, V. Tipparaju,
      M. Krishnan, B. E. Van Kuiken, A. Vazquez-Mayagoitia, M. Swart, Q. Wu,
   T. Van Voorhis, A. A. Auer, M. Nooijen, L. D. Crosby, E. Brown, G. Cisneros,
     G. I. Fann, H. Fruchtl, J. Garza, K. Hirao, R. A. Kendall, J. A. Nichols,
       K. Tsemekhman, K. Wolinski, J. Anchell, D. E. Bernholdt, P. Borowski,
       T. Clark, D. Clerc, H. Dachsel, M. J. O. Deegan, K. Dyall, D. Elwood,
      E. Glendening, M. Gutowski, A. C. Hess, J. Jaffe, B. G. Johnson, J. Ju,
        R. Kobayashi, R. Kutteh, Z. Lin, R. Littlefield, X. Long, B. Meng,
      T. Nakajima, S. Niu, L. Pollack, M. Rosing, K. Glaesemann, G. Sandrone,
      M. Stave, H. Taylor, G. Thomas, J. H. van Lenthe, A. T. Wong, Z. Zhang.

 Total times  cpu:       39.1s     wall:       40.4s
